# Compile of Traffic_light.sv was successful.
# Compile of Traffic_light.sv was successful.
# Compile of Traffic_light.sv failed with 2 errors.
# Compile of Traffic_light.sv failed with 2 errors.
# Compile of Traffic_light.sv failed with 2 errors.
# Compile of Traffic_light.sv failed with 2 errors.
# Compile of Traffic_light.sv failed with 2 errors.
# Compile of Traffic_light.sv failed with 4 errors.
# Compile of Traffic_light.sv failed with 4 errors.
# Compile of Traffic_light.sv failed with 4 errors.
# Compile of Traffic_light.sv failed with 4 errors.
# Compile of Traffic_light.sv was successful.
vsim -gui work.tb
# vsim -gui work.tb 
# Start time: 03:55:05 on Jun 14,2025
# Loading sv_std.std
# Loading work.tb
# Loading work.intr
# Loading work.traffic_light
add wave -position end  sim:/tb/intr0/clk
add wave -position end  sim:/tb/intr0/out
add wave -position end  sim:/tb/intr0/reset
run
# Time	Reset	Out
# 0	1	0
# 15	0	1
# 25	0	10
# 35	0	0
# 45	0	1
# 55	0	10
# 65	0	0
# 75	0	1
# 85	0	10
# 95	0	0
# ** Note: $finish    : C:/modelsim/work/Traffic_light.sv(62)
#    Time: 100 ps  Iteration: 0  Instance: /tb
# 1
# Break in Module tb at C:/modelsim/work/Traffic_light.sv line 62
add wave -position end  sim:/tb/dut/n_light
add wave -position end  sim:/tb/dut/c_light
run
# 105	0	1
# 115	0	10
# 125	0	0
# 135	0	1
# 145	0	10
# 155	0	0
# 165	0	1
# 175	0	10
# 185	0	0
# 195	0	1
# End time: 04:06:45 on Jun 14,2025, Elapsed time: 0:11:40
# Errors: 0, Warnings: 16
